TITLE = "Visualization of Laplacian smoothing"
VARIABLES = "x", "y", "phi", "phi_exact", "error"
ZONE STRANDID=37, SOLUTIONTIME=37, DATAPACKING=BLOCK I=17, J=17
0 0 0 0 0 0 0 0 0 0 0 0 0 0 0 0 0 
0.0625 0.0625 0.0625 0.0625 0.0625 0.0625 0.0625 0.0625 0.0625 0.0625 0.0625 0.0625 0.0625 0.0625 0.0625 0.0625 0.0625 
0.125 0.125 0.125 0.125 0.125 0.125 0.125 0.125 0.125 0.125 0.125 0.125 0.125 0.125 0.125 0.125 0.125 
0.1875 0.1875 0.1875 0.1875 0.1875 0.1875 0.1875 0.1875 0.1875 0.1875 0.1875 0.1875 0.1875 0.1875 0.1875 0.1875 0.1875 
0.25 0.25 0.25 0.25 0.25 0.25 0.25 0.25 0.25 0.25 0.25 0.25 0.25 0.25 0.25 0.25 0.25 
0.3125 0.3125 0.3125 0.3125 0.3125 0.3125 0.3125 0.3125 0.3125 0.3125 0.3125 0.3125 0.3125 0.3125 0.3125 0.3125 0.3125 
0.375 0.375 0.375 0.375 0.375 0.375 0.375 0.375 0.375 0.375 0.375 0.375 0.375 0.375 0.375 0.375 0.375 
0.4375 0.4375 0.4375 0.4375 0.4375 0.4375 0.4375 0.4375 0.4375 0.4375 0.4375 0.4375 0.4375 0.4375 0.4375 0.4375 0.4375 
0.5 0.5 0.5 0.5 0.5 0.5 0.5 0.5 0.5 0.5 0.5 0.5 0.5 0.5 0.5 0.5 0.5 
0.5625 0.5625 0.5625 0.5625 0.5625 0.5625 0.5625 0.5625 0.5625 0.5625 0.5625 0.5625 0.5625 0.5625 0.5625 0.5625 0.5625 
0.625 0.625 0.625 0.625 0.625 0.625 0.625 0.625 0.625 0.625 0.625 0.625 0.625 0.625 0.625 0.625 0.625 
0.6875 0.6875 0.6875 0.6875 0.6875 0.6875 0.6875 0.6875 0.6875 0.6875 0.6875 0.6875 0.6875 0.6875 0.6875 0.6875 0.6875 
0.75 0.75 0.75 0.75 0.75 0.75 0.75 0.75 0.75 0.75 0.75 0.75 0.75 0.75 0.75 0.75 0.75 
0.8125 0.8125 0.8125 0.8125 0.8125 0.8125 0.8125 0.8125 0.8125 0.8125 0.8125 0.8125 0.8125 0.8125 0.8125 0.8125 0.8125 
0.875 0.875 0.875 0.875 0.875 0.875 0.875 0.875 0.875 0.875 0.875 0.875 0.875 0.875 0.875 0.875 0.875 
0.9375 0.9375 0.9375 0.9375 0.9375 0.9375 0.9375 0.9375 0.9375 0.9375 0.9375 0.9375 0.9375 0.9375 0.9375 0.9375 0.9375 
1 1 1 1 1 1 1 1 1 1 1 1 1 1 1 1 1 
0 0.0625 0.125 0.1875 0.25 0.3125 0.375 0.4375 0.5 0.5625 0.625 0.6875 0.75 0.8125 0.875 0.9375 1 
0 0.0625 0.125 0.1875 0.25 0.3125 0.375 0.4375 0.5 0.5625 0.625 0.6875 0.75 0.8125 0.875 0.9375 1 
0 0.0625 0.125 0.1875 0.25 0.3125 0.375 0.4375 0.5 0.5625 0.625 0.6875 0.75 0.8125 0.875 0.9375 1 
0 0.0625 0.125 0.1875 0.25 0.3125 0.375 0.4375 0.5 0.5625 0.625 0.6875 0.75 0.8125 0.875 0.9375 1 
0 0.0625 0.125 0.1875 0.25 0.3125 0.375 0.4375 0.5 0.5625 0.625 0.6875 0.75 0.8125 0.875 0.9375 1 
0 0.0625 0.125 0.1875 0.25 0.3125 0.375 0.4375 0.5 0.5625 0.625 0.6875 0.75 0.8125 0.875 0.9375 1 
0 0.0625 0.125 0.1875 0.25 0.3125 0.375 0.4375 0.5 0.5625 0.625 0.6875 0.75 0.8125 0.875 0.9375 1 
0 0.0625 0.125 0.1875 0.25 0.3125 0.375 0.4375 0.5 0.5625 0.625 0.6875 0.75 0.8125 0.875 0.9375 1 
0 0.0625 0.125 0.1875 0.25 0.3125 0.375 0.4375 0.5 0.5625 0.625 0.6875 0.75 0.8125 0.875 0.9375 1 
0 0.0625 0.125 0.1875 0.25 0.3125 0.375 0.4375 0.5 0.5625 0.625 0.6875 0.75 0.8125 0.875 0.9375 1 
0 0.0625 0.125 0.1875 0.25 0.3125 0.375 0.4375 0.5 0.5625 0.625 0.6875 0.75 0.8125 0.875 0.9375 1 
0 0.0625 0.125 0.1875 0.25 0.3125 0.375 0.4375 0.5 0.5625 0.625 0.6875 0.75 0.8125 0.875 0.9375 1 
0 0.0625 0.125 0.1875 0.25 0.3125 0.375 0.4375 0.5 0.5625 0.625 0.6875 0.75 0.8125 0.875 0.9375 1 
0 0.0625 0.125 0.1875 0.25 0.3125 0.375 0.4375 0.5 0.5625 0.625 0.6875 0.75 0.8125 0.875 0.9375 1 
0 0.0625 0.125 0.1875 0.25 0.3125 0.375 0.4375 0.5 0.5625 0.625 0.6875 0.75 0.8125 0.875 0.9375 1 
0 0.0625 0.125 0.1875 0.25 0.3125 0.375 0.4375 0.5 0.5625 0.625 0.6875 0.75 0.8125 0.875 0.9375 1 
0 0.0625 0.125 0.1875 0.25 0.3125 0.375 0.4375 0.5 0.5625 0.625 0.6875 0.75 0.8125 0.875 0.9375 1 
0 0 0 0 0 0 0 0 0 0 0 0 0 0 0 0 0 
0 0.00388845796866287 0.00762748468104936 0.0110733914346711 0.0140937539631038 0.0165725014327562 0.0184143769656061 0.0195485983178488 0.0199315780001542 0.0195485983177299 0.0184143769648066 0.0165725014321172 0.0140937539635169 0.0110733914338475 0.00762748468146889 0.00388845797029166 -2.91260733331499e-21 
0 0.00731901767076462 0.0143567695940624 0.020842798916671 0.0265278511639333 0.0311934529689368 0.0346603078694416 0.0367951865760783 0.0375160468974303 0.03679518657586 0.0346603078689851 0.031193452968609 0.0265278511642157 0.0208427989164326 0.0143567695953088 0.00731901766986611 -4.55331117820521e-20 
0 0.00984170009543225 0.0193051891752106 0.0280267906600748 0.0356713382988131 0.0419450564108785 0.0466068495282707 0.0494775675561579 0.05044689040975 0.0494775675559985 0.0466068495282743 0.0419450564108829 0.0356713382984095 0.0280267906599039 0.0193051891741139 0.00984170009469302 -2.218178513229e-19 
0 0.0110646536048891 0.0217040987770815 0.0315094676041816 0.0401039452623899 0.0471572507947601 0.0523983296250296 0.0556257700334272 0.0567155432946699 0.0556257700334286 0.0523983296250179 0.0471572507947499 0.0401039452621849 0.0315094676040002 0.021704098776502 0.0110646536046988 -6.64566646282019e-19 
0 0.0107017013720153 0.0209921423598264 0.0304758670898696 0.0387884213390001 0.045610358308714 0.0506795147873127 0.0538010859341964 0.0548551115206129 0.0538010859341573 0.0506795147872076 0.0456103583087426 0.0387884213387937 0.0304758670897694 0.0209921423594225 0.0107017013706644 -1.51538651356989e-18 
0 0.0086105342324508 0.0168901704632829 0.0245207269146071 0.0312089655824118 0.0366978612050584 0.0407764786018953 0.0432880787940895 0.0441361423944337 0.043288078794115 0.0407764786019776 0.0366978612052364 0.0312089655824331 0.0245207269146752 0.016890170462766 0.00861053423236959 -2.89157212812643e-18 
0 0.00481869375562032 0.00945220781344168 0.0137224788253443 0.0174654026715379 0.0205371408878796 0.0228196482971922 0.0242252094199271 0.0246998093303638 0.024225209419834 0.0228196482970698 0.0205371408878077 0.0174654026713635 0.0137224788250899 0.00945220781329242 0.00481869375597018 -4.85471099556716e-18 
0 -0.000461770145916839 -0.000905794724200624 -0.00131501011935318 -0.00167369041287566 -0.00196805172262132 -0.00218678190836916 -0.00232147529174275 -0.00236695568140807 -0.00232147529180867 -0.00218678190857265 -0.00196805172298302 -0.00167369041342601 -0.00131501011971323 -0.000905794724731038 -0.000461770146391821 -7.38380268694326e-18 
0 -0.00682746928753467 -0.0133925627594948 -0.0194429875551189 -0.0247462292424335 -0.0290984872182494 -0.032332506648746 -0.0343240059809984 -0.0349964530123689 -0.0343240059809622 -0.0323325066487589 -0.0290984872182855 -0.0247462292426273 -0.0194429875550396 -0.0133925627595095 -0.00682746928728133 -1.03534598762307e-17 
0 -0.0136796654377227 -0.026833629004123 -0.0389563912563516 -0.0495820812396144 -0.0583023596470689 -0.0647821110695253 -0.0687723222936875 -0.070119651739957 -0.0687723222937606 -0.0647821110695294 -0.0583023596471872 -0.0495820812400462 -0.0389563912566693 -0.0268336290038464 -0.0136796654376537 -1.35158069670843e-17 
0 -0.0202168725538766 -0.0396568220333468 -0.0575727820818162 -0.0732762524020176 -0.0861637574363754 -0.0957400375935801 -0.101637081797569 -0.103628269946879 -0.101637081797663 -0.0957400375934307 -0.0861637574364477 -0.0732762524021684 -0.0575727820815532 -0.0396568220333493 -0.0202168725539596 -1.64829137110262e-17 
0 -0.0254156664398748 -0.0498546230717967 -0.072377694497848 -0.0921193317141152 -0.108320874673876 -0.120359707166961 -0.127773183612076 -0.130276408266967 -0.127773183612057 -0.120359707166959 -0.108320874674023 -0.0921193317140197 -0.072377694497886 -0.0498546230718204 -0.0254156664398969 -1.87043471819981e-17 
0 -0.0279859063772453 -0.05489633006719 -0.0796971185788791 -0.101435191518142 -0.11927516693296 -0.132531464572921 -0.140694652353722 -0.143451023546937 -0.140694652353682 -0.132531464572906 -0.119275166932862 -0.101435191518256 -0.0796971185789096 -0.0548963300672096 -0.0279859063773048 -1.94302482782139e-17 
0 -0.0262731099141792 -0.0515365589483789 -0.0748194869242762 -0.0952271439768162 -0.111975275290522 -0.124420259571287 -0.132083843052176 -0.134671518518145 -0.13208384305228 -0.124420259570986 -0.111975275290516 -0.0952271439769443 -0.0748194869242063 -0.0515365589483199 -0.0262731099141339 -1.764077314353e-17 
0 -0.0180454898042746 -0.0353975015552743 -0.0513892071727592 -0.0654060543779264 -0.0769093835936583 -0.0854571283290077 -0.090720803547559 -0.0924981291627055 -0.0907208035475191 -0.0854571283288712 -0.0769093835936516 -0.0654060543779468 -0.0513892071727048 -0.0353975015553081 -0.0180454898042598 -1.18978116312081e-17 
0 -1.44525767079777e-17 -2.83497489981662e-17 -4.11574563330776e-17 -5.23835057024762e-17 -6.15964863247371e-17 -6.84423485212459e-17 -7.26580096469944e-17 -7.40814642090902e-17 -7.26580096469944e-17 -6.84423485212459e-17 -6.15964863247371e-17 -5.23835057024762e-17 -4.11574563330776e-17 -2.83497489981662e-17 -1.44525767079777e-17 -9.07236280198115e-33 
0 0 0 0 0 0 0 0 0 0 0 0 0 0 0 0 0 
-0 -4.639880681994e-06 -9.10145335145403e-06 -1.32132622727715e-05 -1.68172929350293e-05 -1.97750444610404e-05 -2.19728521183864e-05 -2.33262553913402e-05 -2.37832437511196e-05 -2.33262553913402e-05 -2.19728521183864e-05 -1.97750444610404e-05 -1.68172929350293e-05 -1.32132622727715e-05 -9.10145335145403e-06 -4.63988068199401e-06 -2.91260733331499e-21 
-0 -7.25357666074957e-05 -0.000142284024382792 -0.000206564386894858 -0.000262906595861197 -0.000309145451788307 -0.00034350402137396 -0.000364661924057487 -0.000371806073504246 -0.000364661924057487 -0.00034350402137396 -0.000309145451788308 -0.000262906595861197 -0.000206564386894858 -0.000142284024382792 -7.25357666074958e-05 -4.55331117820521e-20 
-0 -0.00035336323970013 -0.000693146928266972 -0.00100629336910179 -0.00128076852009785 -0.00150602445512981 -0.00167340471493937 -0.00177647697001 -0.0018112802113829 -0.00177647697001 -0.00167340471493937 -0.00150602445512981 -0.00128076852009785 -0.00100629336910179 -0.000693146928266972 -0.000353363239700131 -2.218178513229e-19 
-0 -0.00105867684555747 -0.00207666933365299 -0.00301485658386579 -0.00383718458631169 -0.00451205173702354 -0.00501352326986933 -0.0053223279150703 -0.00542659848329099 -0.0053223279150703 -0.00501352326986933 -0.00451205173702354 -0.00383718458631169 -0.00301485658386579 -0.00207666933365299 -0.00105867684555747 -6.64566646282019e-19 
-0 -0.00241406128785117 -0.00473535155423139 -0.00687466491599824 -0.00874978876039978 -0.0102886631296772 -0.0114321499448299 -0.0121363056488264 -0.012374069932857 -0.0121363056488264 -0.0114321499448299 -0.0102886631296772 -0.00874978876039978 -0.00687466491599824 -0.00473535155423139 -0.00241406128785117 -1.51538651356989e-18 
-0 -0.00460637089813821 -0.00903572154594352 -0.0131178344820293 -0.0166958363955369 -0.019632226679497 -0.0218141615020436 -0.0231577903315894 -0.0236114782657307 -0.0231577903315894 -0.0218141615020436 -0.019632226679497 -0.0166958363955369 -0.0131178344820293 -0.00903572154594353 -0.00460637089813822 -2.89157212812643e-18 
-0 -0.00773371662817269 -0.015170230863443 -0.0220237616341946 -0.028030931596412 -0.0329608885773068 -0.0366241770948549 -0.0388800190257229 -0.0396417236295983 -0.0388800190257229 -0.0366241770948549 -0.0329608885773068 -0.028030931596412 -0.0220237616341946 -0.015170230863443 -0.00773371662817271 -4.85471099556716e-18 
-0 -0.0117626440938093 -0.0230732563716604 -0.0334971763467798 -0.0426338186203254 -0.0501320671536128 -0.055703768460574 -0.0591348051846286 -0.0602933245086187 -0.0591348051846286 -0.055703768460574 -0.0501320671536128 -0.0426338186203254 -0.0334971763467798 -0.0230732563716604 -0.0117626440938094 -7.38380268694326e-18 
-0 -0.0164934071002449 -0.0323529818152367 -0.0469692495828301 -0.0597805154296141 -0.0702944495937372 -0.0781070074815545 -0.0829179568747701 -0.0845424156862143 -0.0829179568747701 -0.0781070074815545 -0.0702944495937372 -0.0597805154296141 -0.0469692495828301 -0.0323529818152367 -0.0164934071002449 -1.03534598762307e-17 
-0 -0.0215311315503551 -0.0422348337900278 -0.0613154750527174 -0.0780397969952455 -0.0917650933044688 -0.101963908540459 -0.108244307953257 -0.110364939315519 -0.108244307953257 -0.101963908540459 -0.0917650933044689 -0.0780397969952456 -0.0613154750527174 -0.0422348337900278 -0.0215311315503552 -1.35158069670843e-17 
-0 -0.0262578316122413 -0.0515065894811859 -0.0747759780015966 -0.0951717676222575 -0.111910159586137 -0.124347906877062 -0.132007033841811 -0.134593204526417 -0.132007033841811 -0.124347906877062 -0.111910159586137 -0.0951717676222575 -0.0747759780015966 -0.0515065894811859 -0.0262578316122414 -1.64829137110262e-17 
-0 -0.0297966492655521 -0.0584482300099826 -0.0848536780532743 -0.10799824683547 -0.126992503557893 -0.141106509586802 -0.149797871585733 -0.152732585387238 -0.149797871585733 -0.141106509586802 -0.126992503557893 -0.10799824683547 -0.0848536780532743 -0.0584482300099826 -0.0297966492655522 -1.87043471819981e-17 
-0 -0.0309530339367177 -0.0607165601379087 -0.0881467829832391 -0.112189574391809 -0.13192098337314 -0.146582742945581 -0.155611409911172 -0.158660017661762 -0.155611409911172 -0.146582742945581 -0.13192098337314 -0.112189574391809 -0.0881467829832391 -0.0607165601379087 -0.0309530339367177 -1.94302482782139e-17 
-0 -0.0281023403285002 -0.0551247234781502 -0.0800286944188359 -0.101857207513615 -0.119771405245825 -0.133082855043017 -0.14128000535463 -0.144047844291205 -0.14128000535463 -0.133082855043017 -0.119771405245825 -0.101857207513615 -0.0800286944188359 -0.0551247234781502 -0.0281023403285003 -1.764077314353e-17 
-0 -0.0189536109842911 -0.0371788453277635 -0.0539753174954265 -0.0686975484814471 -0.0807797712053547 -0.0897576726236582 -0.0952862370197172 -0.0971530047642458 -0.0952862370197172 -0.0897576726236582 -0.0807797712053548 -0.0686975484814471 -0.0539753174954265 -0.0371788453277635 -0.0189536109842912 -1.18978116312081e-17 
-0 -1.44525767079777e-17 -2.83497489981662e-17 -4.11574563330776e-17 -5.23835057024762e-17 -6.15964863247371e-17 -6.84423485212459e-17 -7.26580096469944e-17 -7.40814642090902e-17 -7.26580096469944e-17 -6.84423485212459e-17 -6.15964863247371e-17 -5.23835057024762e-17 -4.11574563330776e-17 -2.83497489981662e-17 -1.44525767079777e-17 -9.07236280198115e-33 
0 0 0 0 0 0 0 0 0 0 0 0 0 0 0 0 0 
0 0.00389309784934487 0.00763658613440082 0.0110866046969439 0.0141105712560388 0.0165922764772172 0.0184363498177245 0.0195719245732402 0.0199553612439053 0.0195719245731213 0.0184363498169249 0.0165922764765782 0.0141105712564519 0.0110866046961203 0.00763658613482034 0.00389309785097365 0 
0 0.00739155343737212 0.0144990536184452 0.0210493633035659 0.0267907577597945 0.0315025984207251 0.0350038118908156 0.0371598485001358 0.0378878529709345 0.0371598484999175 0.0350038118903591 0.0315025984203973 0.0267907577600769 0.0210493633033275 0.0144990536196916 0.0073915534364736 0 
0 0.0101950633351324 0.0199983361034776 0.0290330840291766 0.0369521068189109 0.0434510808660083 0.0482802542432101 0.0512540445261679 0.0522581706211329 0.0512540445260085 0.0482802542432137 0.0434510808660127 0.0369521068185073 0.0290330840290057 0.0199983361023809 0.0101950633343931 0 
0 0.0121233304504466 0.0237807681107345 0.0345243241880474 0.0439411298487016 0.0516693025317836 0.0574118528948989 0.0609480979484975 0.0621421417779609 0.0609480979484989 0.0574118528948872 0.0516693025317735 0.0439411298484966 0.034524324187866 0.023780768110155 0.0121233304502563 0 
0 0.0131157626598664 0.0257274939140578 0.0373505320058678 0.0475382100993999 0.0558990214383912 0.0621116647321426 0.0659373915830228 0.0672291814534699 0.0659373915829837 0.0621116647320375 0.0558990214384198 0.0475382100991935 0.0373505320057676 0.0257274939136538 0.0131157626585156 0 
0 0.013216905130589 0.0259258920092265 0.0376385613966363 0.0479048019779487 0.0563300878845554 0.0625906401039389 0.0664458691256789 0.0677476206601644 0.0664458691257045 0.0625906401040213 0.0563300878847334 0.0479048019779701 0.0376385613967044 0.0259258920087095 0.0132169051305078 0 
0 0.012552410383793 0.0246224386768846 0.0357462404595389 0.0454963342679499 0.0534980294651864 0.0594438253920471 0.0631052284456501 0.0643415329599621 0.063105228445557 0.0594438253919247 0.0534980294651144 0.0454963342677755 0.0357462404592845 0.0246224386767354 0.0125524103841429 0 
0 0.0113008739478925 0.0221674616474598 0.0321821662274266 0.0409601282074497 0.0481640154309914 0.0535169865522048 0.0568133298928858 0.0579263688272107 0.0568133298928199 0.0535169865520013 0.0481640154306298 0.0409601282068994 0.0321821662270666 0.0221674616469294 0.0113008739474175 0 
0 0.00966593781271025 0.0189604190557419 0.0275262620277112 0.0350342861871805 0.0411959623754878 0.0457745008328085 0.0485939508937717 0.0495459626738454 0.048593950893808 0.0457745008327956 0.0411959623754517 0.0350342861869868 0.0275262620277906 0.0189604190557272 0.00966593781296362 0 
0 0.00785146611263238 0.0154012047859048 0.0223590837963657 0.0284577157556311 0.0334627336573999 0.0371817974709333 0.0394719856595697 0.0402452875755624 0.0394719856594966 0.0371817974709292 0.0334627336572817 0.0284577157551993 0.0223590837960481 0.0154012047861814 0.00785146611270149 0 
0 0.00604095905836475 0.0118497674478391 0.0172031959197803 0.0218955152202399 0.0257464021497619 0.0286078692834822 0.0303699520442425 0.0309649345795378 0.0303699520441481 0.0286078692836316 0.0257464021496896 0.0218955152200891 0.0172031959200434 0.0118497674478366 0.0060409590582818 0 
0 0.00438098282567737 0.00859360693818588 0.0124759835554263 0.0158789151213545 0.0186716288840161 0.020746802419841 0.0220246879736573 0.0224561771202711 0.0220246879736762 0.0207468024198435 0.0186716288838692 0.01587891512145 0.0124759835553883 0.00859360693816213 0.00438098282565526 0 
0 0.00296712755947234 0.00582023007071869 0.00844966440435997 0.0107543828736674 0.0126458164401799 0.0140512783726597 0.0149167575574504 0.0152089941148248 0.0149167575574908 0.0140512783726751 0.0126458164402779 0.0107543828735531 0.00844966440432954 0.00582023007069912 0.00296712755941288 0 
0 0.00182923041432098 0.00358816452977129 0.00520920749455973 0.00663006353679853 0.00779612995530331 0.00866259547172965 0.00919616230245435 0.00937632577305975 0.00919616230234971 0.00866259547203101 0.00779612995530936 0.00663006353667042 0.00520920749462962 0.00358816452983035 0.00182923041436634 0 
0 0.000908121180016534 0.0017813437724892 0.00258611032266737 0.00329149410352071 0.00387038761169649 0.0043005442946505 0.00456543347215817 0.00465487560154022 0.00456543347219809 0.00430054429478696 0.0038703876117032 0.00329149410350033 0.00258611032272175 0.00178134377245543 0.000908121180031411 0 
0 0 0 0 0 0 0 0 0 0 0 0 0 0 0 0 0 
